11
	Energy:      18.4473866
C         -3.85917        0.50307       -0.21854
C         -2.51914        0.41396        0.08073
C         -4.31568        1.76673        0.09084
C         -2.08132        1.61815        0.58984
H         -4.46831       -0.28940       -0.63239
H         -1.89739       -0.46036       -0.05822
C         -3.20534        2.59531        0.63978
H         -5.33579        2.09900       -0.04879
H         -3.41704        2.91279        1.68223
H         -3.00270        3.47564       -0.00544
H         -1.06522        1.81502        0.90497
