34
	Energy:     178.0049481
C         -3.93361        1.33842       -0.53588
C         -2.81175        0.89267        0.12272
C         -4.84513        1.90158        0.51654
C         -3.03451        1.18195        1.57955
C         -3.80498        2.49610        1.46446
H         -4.22559        2.86265        2.42909
H         -3.20641        3.31493        0.99929
C         -5.40086        0.73723        1.37288
C         -4.13557        0.23414        2.11547
H         -5.63672        2.56617        0.10955
H         -2.10288        1.16153        2.18420
H         -4.06646        1.36259       -1.60898
H         -1.91640        0.50824       -0.34672
C         -6.19268       -0.25647        0.56259
H         -6.08731        1.16765        2.13837
C         -5.82264       -1.71150        0.43248
C         -4.55695       -2.21449        1.17441
C         -3.76595       -1.22111        1.98596
H         -4.27862        0.44801        3.20001
O         -7.19018        0.13993       -0.02219
O         -2.76875       -1.61761        2.57116
C         -6.92298       -2.66076        0.96713
C         -5.11161       -3.38088        2.02860
C         -6.15133       -3.97450        1.07960
H         -6.74908       -4.79481        1.54313
H         -5.73042       -4.33877        0.11419
C         -7.14578       -2.37432        2.42448
H         -7.85465       -2.64013        0.36254
C         -6.02356       -2.82057        3.08213
H         -4.31936       -4.04554        2.43422
H         -5.89067       -2.84701        4.15517
H         -8.04146       -1.99179        2.89481
H         -5.67962       -1.92435       -0.65227
H         -3.86991       -2.64306        0.40843
