14
	Energy:      41.5997720
H         -0.50184        0.18951        0.00000
H         -2.98226        0.11753        0.00000
H         -4.28440        2.22723        0.00000
H         -3.14261        4.39684        0.00000
C         -2.46600        1.07476        0.00000
C         -1.07356        1.11461        0.00000
C         -3.19713        2.26143       -0.00000
C         -0.41073        2.34381       -0.00000
C         -2.53766        3.49429        0.00000
H          0.67821        2.35656        0.00000
C         -1.13656        3.54568        0.00000
C         -0.38693        4.84521        0.00000
O          0.84226        4.78860       -0.00000
Cl        -1.26611        6.36088        0.00000
