7
	Energy:      41.5997720
C         -1.13656        3.54568        0.00000
C         -0.38693        4.84521        0.00000
O          0.84226        4.78860       -0.00000
Cl        -1.26611        6.36088        0.00000
H         -0.44093        2.73266       -0.00000
H         -1.75169        3.48876       -0.87365
H         -1.75169        3.48876        0.87365
