2
	Energy:      41.5997720
Cl        -1.13656        3.54568        0.00000
H          0.19344        3.54568        0.00000
