5
	Energy:      41.5997720
C         -1.13656        3.54568        0.00000
H         -0.06656        3.54568        0.00000
H         -1.49322        3.15104        0.92841
H         -1.49322        2.93897       -0.80597
H         -1.49322        4.54703       -0.12244
