17
	Energy:      70.3780487
C         -1.22622        2.90168        0.85117
C         -0.35973        1.76045        1.23939
C         -0.93006        0.50303        1.78672
C         -0.18463       -0.21121        2.73218
O          0.85719        1.85879        1.10264
C         -0.68169       -1.40415        3.25886
H          0.78502        0.16066        3.05759
C         -2.16002       -0.00081        1.34584
H         -2.73498        0.51222        0.57935
C         -2.65345       -1.19503        1.87569
C         -1.91701       -1.89242        2.83366
H         -3.60785       -1.58824        1.53385
H         -0.10143       -1.95519        3.99482
H         -2.30059       -2.82487        3.24107
H         -2.25012        2.65037        1.03382
H         -1.09121        3.11440       -0.18874
H         -0.96184        3.76281        1.42863
