10
	Energy:      70.3780487
C         -1.22622        2.90168        0.85117
C         -0.35973        1.76045        1.23939
C         -0.93006        0.50303        1.78672
O          0.85719        1.85879        1.10264
H         -2.25012        2.65037        1.03382
H         -1.09121        3.11440       -0.18874
H         -0.96184        3.76281        1.42863
H         -1.99547        0.58748        1.83842
H         -0.53794        0.33069        2.76726
H         -0.66764       -0.31496        1.14881
